
  ___ ___ ___ _ _ _  
 |   |   |_  | | | | 
 | | | | | . | | | | 
 |__ |  _|___|_____|  23.9.1
 |___|_|             

User:   ???@287f1c874699
Date:   Thu Nov  9 12:32:46 2023
Arch:   x86_64
Pid:    17682
CWD:    /workdir/abinitio_projects/projects/YCrO3
Python: 3.11.6
gpaw:   /usr/lib/python3.11/site-packages/gpaw
_gpaw:  /usr/lib/python3.11/site-packages/_gpaw.cpython-311-x86_64-linux-gnu.so
ase:    /usr/lib/python3.11/site-packages/ase (version 3.22.1)
numpy:  /usr/lib/python3.11/site-packages/numpy (version 1.26.1)
scipy:  /usr/lib/python3.11/site-packages/scipy (version 1.11.3)
libxc:  7.0.0
units:  Angstrom and eV
cores: 16
OpenMP: True
OMP_NUM_THREADS: 4

Input parameters:
  basis: dzp
  convergence: {bands: occupied}
  hund: True
  kpts: [3 3 3]
  maxiter: 1000
  mode: lcao
  occupations: {name: fermi-dirac,
                width: 0.0}
  setups: {Cr: :d,3.7}
  spinpol: True

System changes: positions, numbers, cell, pbc, initial_charges, initial_magmoms 

Initialize ...

species:
  Y:
    name: Yttrium
    id: e19a475b10ce94e57b610f4f6dcf97f6
    Z: 39.0
    valence: 11
    core: 28
    charge: 0.0
    file: /usr/share/gpaw-setups/Y.LDA.gz
    compensation charges: {type: gauss,
                           rc: 0.40,
                           lmax: 2}
    cutoffs: {filter: 2.39,
              core: 1.70}
    valence states:
      #              energy  rcut
      - 4s(2.00)   -47.976   1.328
      - 5s(2.00)    -4.228   1.328
      - 4p(6.00)   -27.951   1.318
      - 5p(0.00)    -1.496   1.318
      - 4d(1.00)    -2.645   1.286
      -  d          24.567   1.286
  
    # LCAO basis set for Y:
    #   Name: dzp
    #   File: /usr/share/gpaw-setups/Y.dzp.basis.gz
    #   Number of radial functions: 11
    #   Number of spherical harmonics: 29
    #     l=0, rc=4.0469 Bohr: 4s-sz confined orbital
    #     l=0, rc=10.5938 Bohr: 5s-sz confined orbital
    #     l=1, rc=4.7344 Bohr: 4p-sz confined orbital
    #     l=1, rc=13.8750 Bohr: 5p-sz confined orbital
    #     l=2, rc=8.9531 Bohr: 4d-sz confined orbital
    #     l=0, rc=2.3750 Bohr: 4s-dz split-valence wave
    #     l=0, rc=6.5469 Bohr: 5s-dz split-valence wave
    #     l=1, rc=2.8438 Bohr: 4p-dz split-valence wave
    #     l=1, rc=8.7031 Bohr: 5p-dz split-valence wave
    #     l=2, rc=5.2656 Bohr: 4d-dz split-valence wave
    #     l=1, rc=10.5938 Bohr: p-type Gaussian polarization
    #   Number of RI-basis functions 0

  Cr:
    name: Chromium
    id: 444e8044bc0f91048286c984738d87f5
    Z: 24.0
    valence: 6
    core: 18
    charge: 0.0
    Hubbard: {U: 3.7,  # eV
              l: 2,
              scale: True}
    file: /usr/share/gpaw-setups/Cr.LDA.gz
    compensation charges: {type: gauss,
                           rc: 0.35,
                           lmax: 2}
    cutoffs: {filter: 2.14,
              core: 3.04}
    valence states:
      #              energy  rcut
      - 4s(1.00)    -4.191   1.164
      - 4p(0.00)    -1.079   1.217
      - 3d(5.00)    -3.128   1.111
      -  s          23.021   1.164
      -  p          26.132   1.217
      -  d          24.083   1.111
  
    # LCAO basis set for Cr:
    #   Name: dzp
    #   File: /usr/share/gpaw-setups/Cr.dzp.basis.gz
    #   Number of radial functions: 5
    #   Number of spherical harmonics: 15
    #     l=0, rc=9.8906 Bohr: 4s-sz confined orbital
    #     l=2, rc=6.6406 Bohr: 3d-sz confined orbital
    #     l=0, rc=5.9219 Bohr: 4s-dz split-valence wave
    #     l=2, rc=3.8906 Bohr: 3d-dz split-valence wave
    #     l=1, rc=9.8906 Bohr: p-type Gaussian polarization
    #   Number of RI-basis functions 0

  O:
    name: Oxygen
    id: 9b9d51c344dea68c822856295a461509
    Z: 8.0
    valence: 6
    core: 2
    charge: 0.0
    file: /usr/share/gpaw-setups/O.LDA.gz
    compensation charges: {type: gauss,
                           rc: 0.21,
                           lmax: 2}
    cutoffs: {filter: 1.17,
              core: 0.83}
    valence states:
      #              energy  rcut
      - 2s(2.00)   -23.752   0.688
      - 2p(4.00)    -9.195   0.598
      -  s           3.459   0.688
      -  p          18.016   0.598
      -  d           0.000   0.619
  
    # LCAO basis set for O:
    #   Name: dzp
    #   File: /usr/share/gpaw-setups/O.dzp.basis.gz
    #   Number of radial functions: 5
    #   Number of spherical harmonics: 13
    #     l=0, rc=4.3438 Bohr: 2s-sz confined orbital
    #     l=1, rc=5.3906 Bohr: 2p-sz confined orbital
    #     l=0, rc=2.2969 Bohr: 2s-dz split-valence wave
    #     l=1, rc=2.8906 Bohr: 2p-dz split-valence wave
    #     l=2, rc=5.3906 Bohr: d-type Gaussian polarization
    #   Number of RI-basis functions 0

Reference energy: -506393.175959  # eV

Spin-polarized calculation.
Magnetic moment: 52.000000

Convergence criteria:
 Maximum [total energy] change in last 3 cyles: 0.0005 eV / valence electron
 Maximum integral of absolute [dens]ity change: 0.0001 electrons / valence electron
 Maximum integral of absolute [eigenst]ate change: 4e-08 eV^2 / valence electron
 Maximum number of scf [iter]ations: 1000
 (Square brackets indicate name in SCF output, whereas a 'c' in
 the SCF output indicates the quantity has converged.)

Symmetries present (total): 2

  ( 1  0  0)  (-1  0  0)
  ( 0  1  0)  ( 0 -1  0)
  ( 0  0  1)  ( 0  0 -1)

27 k-points: 3 x 3 x 3 Monkhorst-Pack grid
14 k-points in the irreducible part of the Brillouin zone
       k-points in crystal coordinates                weights
   0:     0.00000000    0.00000000    0.00000000          1/27
   1:     0.00000000    0.00000000    0.33333333          2/27
   2:     0.00000000    0.33333333   -0.33333333          2/27
   3:     0.00000000    0.33333333    0.00000000          2/27
   4:     0.00000000    0.33333333    0.33333333          2/27
   5:     0.33333333   -0.33333333   -0.33333333          2/27
   6:     0.33333333   -0.33333333    0.00000000          2/27
   7:     0.33333333   -0.33333333    0.33333333          2/27
   8:     0.33333333    0.00000000   -0.33333333          2/27
   9:     0.33333333    0.00000000    0.00000000          2/27
          ...
  13:     0.33333333    0.33333333    0.33333333          2/27

Wave functions: LCAO
  Diagonalizer: BLACS / Elpa two-stage solver, 2 x 1 grid with 32 x 32 blocksize
  Atomic Correction: sparse using scipy
  Data-type: complex
 

Occupation numbers: # Zero width 

Eigensolver
   LCAO using direct dense diagonalizer 

Densities:
  Coarse grid: 28*28*40 grid
  Fine grid: 56*56*80 grid
  Total Charge: 0.000000 

Density mixing:
  Method: difference
  Backend: pulay
  Linear mixing parameter: 0.05
  old densities: 5
  Damping of long wavelength oscillations: 50 

Hamiltonian:
  XC and Coulomb potentials evaluated on a 56*56*80 grid
  Using the LDA Exchange-Correlation functional
  Interpolation: tri-quintic (5. degree polynomial)
  Poisson solver: FastPoissonSolver using
    Stencil: 6*3+1=19 point O(h^6) finite-difference Laplacian
    FFT axes: [0, 1, 2]
    FST axes: []
 

Memory estimate:
  Process memory now: 206.00 MiB
  Calculator: 48.10 MiB
    Density: 6.05 MiB
      Arrays: 0.84 MiB
      Localized functions: 3.54 MiB
      Mixer: 1.67 MiB
    Hamiltonian: 0.85 MiB
      Arrays: 0.60 MiB
      XC: 0.00 MiB
      Poisson: 0.00 MiB
      vbar: 0.25 MiB
    Wavefunctions: 41.21 MiB
      C [qnM]: 0.61 MiB
      S, T [2 x qmm]: 1.74 MiB
      P [aqMi]: 0.05 MiB
      BasisFunctions: 38.81 MiB
      Eigensolver: 0.00 MiB

Total number of cores used: 16
Parallelization over k-points: 8
Domain decomposition: 1 x 1 x 2
                      2 x 2 x 4 (fine grid)
OpenMP threads: 4

Number of atoms: 20
Number of atomic orbitals: 332
Number of bands in calculation: 120
Number of valence electrons: 140
Bands to converge: occupied

... initialized

Initializing position-dependent things.

Density initialized from atomic densities
    .------------.  
   /|  O         |  
  / Y            |  
 *  O            |  
 |  |    Y    O  |  
 |  |  O O       |  
 | CO         O  |  
 |  |    O O     |  
 |  O  CrY       |  
 |  .---------O--.  
 | Cr         Y /   
 |/        O   /    
 *-----Cr-----*     

Positions:
   0 Y      0.100491    5.236549    5.750250    ( 0.0000,  0.0000,  1.0000)
   1 Y      2.558009    2.429049    5.750250    ( 0.0000,  0.0000,  1.0000)
   2 Y      2.758991    3.185951    1.916750    ( 0.0000,  0.0000,  1.0000)
   3 Y      5.216509    0.378451    1.916750    ( 0.0000,  0.0000,  1.0000)
   4 Cr     0.000000    2.807500    0.000000    ( 0.0000,  0.0000,  6.0000)
   5 Cr     0.000000    2.807500    3.833500    ( 0.0000,  0.0000,  6.0000)
   6 Cr     2.658500    0.000000    3.833500    ( 0.0000,  0.0000,  6.0000)
   7 Cr     2.658500    5.615000    0.000000    ( 0.0000,  0.0000,  6.0000)
   8 O      0.594972    2.577847    1.916750    ( 0.0000,  0.0000,  2.0000)
   9 O      1.026181    1.109524    4.273586    ( 0.0000,  0.0000,  2.0000)
  10 O      1.026181    1.109524    7.226914    ( 0.0000,  0.0000,  2.0000)
  11 O      1.632319    3.917024    7.226914    ( 0.0000,  0.0000,  2.0000)
  12 O      1.632319    3.917024    4.273586    ( 0.0000,  0.0000,  2.0000)
  13 O      2.063528    5.385346    1.916750    ( 0.0000,  0.0000,  2.0000)
  14 O      3.253472    0.229654    5.750250    ( 0.0000,  0.0000,  2.0000)
  15 O      3.684681    1.697976    3.393414    ( 0.0000,  0.0000,  2.0000)
  16 O      3.684681    1.697976    0.440086    ( 0.0000,  0.0000,  2.0000)
  17 O      4.290819    4.505476    0.440086    ( 0.0000,  0.0000,  2.0000)
  18 O      4.290819    4.505476    3.393414    ( 0.0000,  0.0000,  2.0000)
  19 O      4.722028    3.037154    5.750250    ( 0.0000,  0.0000,  2.0000)

Unit cell:
           periodic     x           y           z      points  spacing
  1. axis:    yes    5.317000    0.000000    0.000000    28     0.1899
  2. axis:    yes    0.000000    5.615000    0.000000    28     0.2005
  3. axis:    yes    0.000000    0.000000    7.667000    40     0.1917

  Lengths:   5.317000   5.615000   7.667000
  Angles:   90.000000  90.000000  90.000000

Effective grid spacing dv^(1/3) = 0.1940

     iter     time        total  log10-change:  magmom
                         energy  eigst   dens
iter:   1 12:33:09  -160.539987       c          +51.6174
iter:   2 12:33:39  -189.527956       c -0.94    +23.8852
iter:   3 12:34:08  -185.828113       c -0.97    +11.2558
iter:   4 12:34:37  -197.379370       c -1.15    +11.5855
iter:   5 12:35:07  -207.905371       c -1.01    +12.0849
iter:   6 12:35:37  -178.507656       c -0.94    +11.9646
iter:   7 12:36:06  -180.419567       c -1.44    +11.8961
iter:   8 12:36:36  -179.013969       c -1.60    +11.9757
iter:   9 12:37:05  -177.935124       c -1.79    +12.0068
iter:  10 12:37:35  -177.846408       c -2.08    +11.9995
iter:  11 12:38:04  -177.803359       c -2.14    +11.9951
iter:  12 12:38:34  -177.705043       c -2.21    +11.9980
iter:  13 12:39:04  -177.590212       c -2.32    +12.0001
iter:  14 12:39:33  -177.618075       c -2.42    +11.9998
iter:  15 12:40:02  -177.635940c      c -2.39    +12.0001
iter:  16 12:40:32  -177.571394c      c -2.39    +12.0008
iter:  17 12:41:01  -177.572324c      c -2.77    +12.0002
iter:  18 12:41:31  -177.576566c      c -2.84    +12.0000
iter:  19 12:42:01  -177.570835c      c -2.88    +12.0001
iter:  20 12:42:30  -177.571353c      c -3.07    +12.0000
iter:  21 12:43:00  -177.571308c      c -3.10    +12.0001
iter:  22 12:43:29  -177.571164c      c -3.13    +12.0000
iter:  23 12:43:58  -177.571279c      c -3.24    +12.0000
iter:  24 12:44:28  -177.571132c      c -3.23    +12.0000
iter:  25 12:44:58  -177.571297c      c -3.32    +12.0000
iter:  26 12:45:27  -177.571347c      c -3.35    +12.0000
iter:  27 12:45:57  -177.571127c      c -3.38    +12.0000
iter:  28 12:46:26  -177.570996c      c -3.44    +12.0000
iter:  29 12:46:56  -177.571009c      c -3.48    +12.0000
iter:  30 12:47:26  -177.571059c      c -3.51    +12.0000
iter:  31 12:47:56  -177.571071c      c -3.98    +12.0000
iter:  32 12:48:26  -177.571059c      c -4.20c   +12.0000

Converged after 32 iterations.

Dipole moment: (-4.368810, -2.923212, 0.691671) |e|*Ang

Total magnetic moment: (0.000000, 0.000000, 12.000044)
Local magnetic moments:
   0 Y  ( 0.000000,  0.000000,  0.006911)
   1 Y  ( 0.000000,  0.000000,  0.006911)
   2 Y  ( 0.000000,  0.000000,  0.006911)
   3 Y  ( 0.000000,  0.000000,  0.006911)
   4 Cr ( 0.000000,  0.000000,  2.889530)
   5 Cr ( 0.000000,  0.000000,  2.889530)
   6 Cr ( 0.000000,  0.000000,  2.889521)
   7 Cr ( 0.000000,  0.000000,  2.889521)
   8 O  ( 0.000000,  0.000000, -0.014465)
   9 O  ( 0.000000,  0.000000, -0.010430)
  10 O  ( 0.000000,  0.000000, -0.010430)
  11 O  ( 0.000000,  0.000000, -0.010430)
  12 O  ( 0.000000,  0.000000, -0.010430)
  13 O  ( 0.000000,  0.000000, -0.014464)
  14 O  ( 0.000000,  0.000000, -0.014464)
  15 O  ( 0.000000,  0.000000, -0.010430)
  16 O  ( 0.000000,  0.000000, -0.010430)
  17 O  ( 0.000000,  0.000000, -0.010430)
  18 O  ( 0.000000,  0.000000, -0.010430)
  19 O  ( 0.000000,  0.000000, -0.014465)

Energy contributions relative to reference atoms: (reference = -506393.175959)

Kinetic:        +43.932057
Potential:      -76.288304
External:        +0.000000
XC:            -149.398068
Entropy (-ST):   +0.000000
Local:           +4.183255
--------------------------
Free energy:   -177.571059
Extrapolated:  -177.571059

Spin contamination: 0.442240 electrons
Showing only first 2 kpts
                      Up                     Down
 Kpt  Band  Eigenvalues  Occupancy  Eigenvalues  Occupancy
  0    68      5.57797    1.00000     10.60951    0.00000
  0    69      5.64734    1.00000     10.75167    0.00000
  0    70      5.70868    1.00000     10.82074    0.00000
  0    71      5.78467    1.00000     10.91928    0.00000

  1    68      5.55961    1.00000     10.56063    0.00000
  1    69      5.56219    1.00000     10.78993    0.00000
  1    70      5.61825    1.00000     10.80672    0.00000
  1    71      5.69824    1.00000     10.92656    0.00000


Fermi level: 7.46198

Gap: 2.716 eV
Transition (v -> c):
  (s=0, k=6, n=75, [0.33, -0.33, 0.00]) -> (s=0, k=0, n=76, [0.00, 0.00, 0.00])
Writing to log/YCrO3_0K_scf.gpw (mode='all')

Timing:                              incl.     excl.
-----------------------------------------------------------
Basic WFS set positions:             0.001     0.001   0.0% |
Basis functions set positions:       0.179     0.179   0.0% |
LCAO WFS Initialize:                 0.683     0.281   0.0% |
 Hamiltonian:                        0.402     0.000   0.0% |
  Atomic:                            0.139     0.050   0.0% |
   XC Correction:                    0.089     0.089   0.0% |
  Calculate atomic Hamiltonians:     0.026     0.026   0.0% |
  Communicate:                       0.010     0.010   0.0% |
  Hartree integrate/restrict:        0.047     0.047   0.0% |
  Initialize Hamiltonian:            0.000     0.000   0.0% |
  Poisson:                           0.152     0.022   0.0% |
   Communicate from 1D:              0.020     0.020   0.0% |
   Communicate from 2D:              0.014     0.014   0.0% |
   Communicate to 1D:                0.031     0.031   0.0% |
   Communicate to 2D:                0.064     0.064   0.0% |
   FFT 1D:                           0.000     0.000   0.0% |
   FFT 2D:                           0.001     0.001   0.0% |
  XC 3D grid:                        0.028     0.028   0.0% |
  vbar:                              0.000     0.000   0.0% |
P tci:                               0.180     0.180   0.0% |
SCF-cycle:                         935.972   293.395  31.2% |-----------|
 Density:                          326.059     0.001   0.0% |
  Atomic density matrices:           0.150     0.150   0.0% |
  Mix:                               8.195     8.195   0.9% |
  Multipole moments:                 0.010     0.010   0.0% |
  Normalize:                         0.003     0.003   0.0% |
  Pseudo density:                  317.701   158.430  16.9% |------|
   Calculate density matrix:         0.455     0.455   0.0% |
   Construct density:              158.504   158.504  16.9% |------|
   Symmetrize density:               0.312     0.312   0.0% |
 Hamiltonian:                       12.389     0.003   0.0% |
  Atomic:                            3.701     1.293   0.1% |
   XC Correction:                    2.408     2.408   0.3% |
  Calculate atomic Hamiltonians:     0.897     0.897   0.1% |
  Communicate:                       0.544     0.544   0.1% |
  Hartree integrate/restrict:        1.789     1.789   0.2% |
  Poisson:                           4.877     0.672   0.1% |
   Communicate from 1D:              0.597     0.597   0.1% |
   Communicate from 2D:              1.033     1.033   0.1% |
   Communicate to 1D:                1.034     1.034   0.1% |
   Communicate to 2D:                1.476     1.476   0.2% |
   FFT 1D:                           0.011     0.011   0.0% |
   FFT 2D:                           0.054     0.054   0.0% |
  XC 3D grid:                        0.576     0.576   0.1% |
  vbar:                              0.002     0.002   0.0% |
 LCAO eigensolver:                 304.129     0.018   0.0% |
  Blacs Orbital Layouts:            13.660     0.005   0.0% |
   General diagonalize:             13.407    13.407   1.4% ||
   Redistribute coefs:               0.161     0.161   0.0% |
   Send coefs to domains:            0.086     0.086   0.0% |
  Calculate projections:             1.389     1.389   0.1% |
  Distribute overlap matrix:         0.363     0.007   0.0% |
   Scalapack redistribute:           0.174     0.174   0.0% |
   blocked summation:                0.182     0.182   0.0% |
  Potential matrix:                272.373   272.373  29.0% |-----------|
  SparseAtomicCorrection:            3.294     3.294   0.4% |
  Sum over cells:                   13.032    13.032   1.4% ||
ST tci:                              0.325     0.325   0.0% |
Scalapack redistribute:              0.004     0.004   0.0% |
Set symmetry:                        0.002     0.002   0.0% |
TCI: Evaluate splines:               0.663     0.663   0.1% |
blocked summation:                   0.002     0.002   0.0% |
mktci:                               0.169     0.169   0.0% |
Other:                               1.505     1.505   0.2% |
-----------------------------------------------------------
Total:                                       939.686 100.0%

Memory usage: 749.95 MiB
Date: Thu Nov  9 12:48:26 2023
